ITEM: TIMESTEP
1000000
ITEM: NUMBER OF ATOMS
24000
ITEM: BOX BOUNDS pp pp pp
7.9497653208523788e-01 7.7181123467898345e+01
6.5371602396452744e-01 7.7322383976026600e+01
-1.2087908816802658e+01 8.8509508816799112e+01
ITEM: ATOMS id type xs ys zs
11 4 0.0257714 0.0199486 0.064569
136 4 0.0853762 0.0388211 0.0521751
122 2 0.0253798 0.0360201 0.0472217
128 2 0.0606909 0.0466951 0.0719475
129 3 0.067866 0.0454839 0.0406636
131 4 0.0503659 0.055877 0.0527326
135 3 0.0832664 0.0150964 0.0600396
133 1 0.100433 0.0748507 0.02373
137 4 0.066008 0.0176724 0.0719076
249 3 0.05054 0.077001 0.0461822
250 4 0.0681258 0.0657765 0.0352698
252 4 0.0317046 0.0839859 0.0379694
255 3 0.102038 0.0546266 0.0598909
256 4 0.107898 0.0734502 0.0529261
130 4 0.0531338 0.0282155 0.0357863
248 2 0.0888684 0.0902505 0.0666258
251 4 0.0584529 0.0950344 0.0533527
241 1 0.0520568 0.0955397 0.0172513
243 3 0.0103828 0.0795252 0.0343539
121 1 0.0378496 0.0359455 0.0100828
258 4 0.0896163 0.0606763 0.0729934
369 3 0.058107 0.116652 0.0491174
378 4 0.098114 0.116008 0.0699469
13 1 0.103244 0.0148246 0.00563645
2405 4 0.00156453 0.00404145 0.137055
124 4 0.0115402 0.0321706 0.025945
244 4 0.00400287 0.0688464 0.0182403
15 3 0.0616123 0.00507828 0.0348546
2402 2 0.0338212 0.00825379 0.145587
370 4 0.0576953 0.121092 0.0318164
242 2 0.00688783 0.119607 0.0438124
257 4 0.122195 0.0438861 0.0622462
17 4 0.103294 0.00801987 0.0591534
125 4 0.00451619 0.057921 0.0407023
2533 1 0.113345 0.0399929 0.0850423
2530 4 0.0794275 0.0401956 0.158146
2650 4 0.0473179 0.058221 0.157968
2522 2 0.0103191 0.0586785 0.155497
2521 1 0.0271106 0.0842407 0.0849394
2532 4 0.0541678 0.0261997 0.141176
2401 1 0.0277565 0.0278202 0.0931719
2535 3 0.09602 0.04771 0.146409
2542 4 0.10793 0.0281502 0.143406
2526 4 0.0104854 0.0277765 0.157263
2529 3 0.0612595 0.045232 0.148963
2536 4 0.0796713 0.0544826 0.13727
132 4 0.0486916 0.0576168 0.0884711
2647 1 0.0692483 0.0901567 0.149802
2656 4 0.109858 0.0601791 0.15688
2407 1 0.0614651 0.0577962 0.111782
2408 2 0.0773855 0.00826828 0.137818
2641 1 0.00742669 0.104788 0.137702
138 4 0.0724227 0.00128912 0.0495325
2653 1 0.124137 0.085328 0.137637
16 4 0.0748896 -0.00153389 0.0228619
4807 1 0.065964 0.050945 0.205816
4817 4 0.0753895 0.0350212 0.235732
4921 1 0.0963408 0.0881104 0.222219
4929 3 0.0748915 0.0563027 0.239141
4930 4 0.0622063 0.0692661 0.22868
4931 4 0.0463113 0.109009 0.2347
4935 3 0.111052 0.0470792 0.238584
4937 4 0.0972123 0.0645775 0.238336
4803 3 0.0124779 0.026939 0.215435
4810 4 0.0315301 0.0234107 0.224654
4815 3 0.0840029 0.017076 0.227123
4922 2 0.0386303 0.0900199 0.219389
2648 2 0.0697012 0.101271 0.189661
4809 3 0.0465594 0.0106619 0.230256
2658 4 0.095694 0.0944418 0.183359
2538 4 0.089808 0.0388538 0.188527
2531 4 0.0601709 0.0725173 0.18335
2528 2 0.0937765 0.0635301 0.179688
4816 4 0.104699 0.027144 0.228105
4804 4 0.0131223 0.0117397 0.201775
4811 4 0.067224 0.0117197 0.216622
4926 4 0.0200281 0.068874 0.231601
4802 2 0.0373162 0.0460252 0.242069
5050 4 0.0610136 0.107601 0.212789
2654 2 0.117631 0.113008 0.17953
2652 4 0.0236885 0.0678037 0.177427
4915 1 0.0207488 0.0330981 0.184429
5055 3 0.095263 0.114847 0.247717
2642 2 0.0118463 0.0934163 0.184197
2414 2 0.0878102 0.0186039 0.17341
5044 4 0.010381 0.0895192 0.213316
4923 3 0.00540787 0.0677163 0.219728
5052 4 0.0846055 0.118137 0.233211
4813 1 0.120816 0.0290329 0.198634
2649 3 0.0440332 0.0707066 0.171902
5049 3 0.0647275 0.119953 0.226204
4814 2 0.122926 0.0105437 0.241059
4812 4 0.0472561 0.0170533 0.246388
2769 3 0.0413206 0.11682 0.167712
4932 4 0.0615919 0.0593509 0.252714
4805 4 0.00688411 0.0492219 0.210853
5056 4 0.114765 0.10462 0.249568
7343 4 0.109997 0.0169301 0.296878
4938 4 0.107827 0.0347902 0.252765
2772 4 0.0213562 0.121777 0.177456
7335 3 0.0987846 0.0791071 0.300381
7214 2 0.0902052 0.0383402 0.30534
7208 2 0.0458768 0.0422006 0.326123
7211 4 0.0461051 0.0681144 0.310252
7336 4 0.087381 0.0638199 0.291413
7328 2 0.0598746 0.0938395 0.313109
7444 4 0.0098243 0.109188 0.286146
7203 3 0.00508465 0.0349988 0.302298
7330 4 0.0137831 0.0522964 0.310932
4928 2 0.0559681 0.0905302 0.25408
7218 4 0.0724198 0.0279173 0.322914
7463 4 0.111761 0.0629589 0.308734
7450 4 0.0415073 0.0941578 0.272787
7201 1 0.0538652 0.0600844 0.285443
7334 2 0.0986302 0.119359 0.313311
7337 4 0.113056 0.0930488 0.292072
7451 4 0.0382304 0.106321 0.300394
7331 4 0.0198068 0.0754511 0.291623
9497 4 0.0448102 0.00270439 0.324927
7206 4 0.023294 0.0180762 0.301459
7215 3 0.06465 0.0089467 0.316032
7329 3 0.0242686 0.0714521 0.30922
7321 1 0.00498379 0.0861795 0.254845
7209 3 0.0406569 0.00988038 0.291915
7449 3 0.0277272 0.0981747 0.285847
9482 2 0.0131137 0.0100306 0.327025
7212 4 0.0607451 0.0139965 0.299162
5058 4 0.0816785 0.104815 0.260412
7333 1 0.0987912 0.0749383 0.266893
7332 4 0.0155744 0.0812338 0.323545
7217 4 0.0887811 0.0923192 0.311652
4808 2 0.0798675 0.0251032 0.25778
7453 1 0.0718207 0.118123 0.280095
7087 1 0.0466807 -0.00273682 0.200917
5045 4 0.0025049 0.110996 0.235487
2651 4 0.0423114 0.0948889 0.167689
7213 1 0.124806 0.0381537 0.279512
7322 2 -0.000635685 0.104346 0.315944
7202 2 0.000884315 0.0575052 0.330916
2771 4 0.0598852 0.12463 0.175512
9601 1 0.0718874 0.036951 0.379118
9721 1 0.0544052 0.0856114 0.366702
9843 3 0.0359808 0.0554401 0.392198
9844 4 0.0480946 0.0559591 0.377986
9725 4 0.015058 0.0483676 0.39334
9726 4 0.0404024 0.0346162 0.403326
9607 1 0.019292 0.0308826 0.365886
9730 4 0.0795234 0.0338171 0.402393
9852 4 0.0368105 0.0736322 0.402959
9856 4 0.115687 0.11151 0.392259
9848 2 0.0886726 0.111301 0.407837
9723 3 0.0184822 0.0276847 0.401186
9850 4 0.0748871 0.088257 0.410911
9485 4 0.0200848 0.0366308 0.338819
9724 4 0.0114667 0.0102215 0.394023
9729 3 0.060322 0.0352442 0.413127
9608 2 0.100146 0.0133067 0.410935
9728 2 0.0926195 0.0609106 0.409169
9736 4 0.122844 0.063738 0.4054
9847 1 0.0367518 0.123604 0.398651
7459 1 0.117035 0.0747053 0.334017
9613 1 0.0977729 0.0126425 0.338234
9849 3 0.0554876 0.0780626 0.415375
9858 4 0.113225 0.107557 0.418171
9731 4 0.059599 0.0563415 0.418509
9722 2 0.017648 0.0605661 0.421062
12127 1 0.0534 0.0623081 0.446467
12013 1 0.0827506 0.00877542 0.46909
9611 4 0.0564237 0.0194825 0.426647
9602 2 0.0290899 0.0228704 0.436304
9851 4 0.0407472 0.0865803 0.426306
9732 4 0.0245083 0.0502987 0.441955
9614 2 0.115351 0.0389531 0.443863
9842 2 0.0192056 0.103748 0.432628
9840 4 0.0105562 0.0317724 0.416138
9738 4 0.110423 0.0141093 0.457828
9737 4 0.108982 0.0386152 0.420313
12247 1 0.0758102 0.110652 0.481436
11897 4 0.122076 0.00598479 0.431701
9605 4 0.00636026 0.00173964 0.438304
12008 2 0.0250501 0.00978983 0.567055
12134 2 0.0964112 0.0591933 0.552314
12017 4 0.0583144 0.0477178 0.519021
12128 2 0.0515064 0.0649939 0.536411
12131 4 0.0387061 0.0887367 0.543746
12135 3 0.0723448 0.0263079 0.558893
12137 4 0.0711252 0.0364251 0.542117
12249 3 0.0380878 0.108682 0.537129
12136 4 0.0831616 0.0420072 0.567
12143 4 0.0803671 0.0766994 0.541101
12250 4 0.0168727 0.107321 0.528711
12015 3 0.0643401 0.0272031 0.526398
12261 3 0.0932223 0.0892488 0.530618
14297 4 0.0819634 0.0113172 0.522201
12016 4 0.0458319 0.012838 0.522666
12014 2 0.10301 0.0147236 0.537101
14521 1 0.0303149 0.0697384 0.572498
12262 4 0.107424 0.0791614 0.51955
12264 4 0.0889718 0.1103 0.524385
12018 4 0.0534103 0.016752 0.563623
12382 4 0.111244 0.0918043 0.543663
12129 3 0.0103607 0.0372364 0.546878
14527 1 0.0745728 0.100022 0.56304
12133 1 0.08806 0.0576489 0.505125
12130 4 0.0209171 0.0553531 0.541361
12122 2 0.00856807 0.0810991 0.536045
12132 4 0.00829864 0.0376392 0.562835
12011 4 0.0182435 0.0136077 0.544012
12121 1 0.0266744 0.0359089 0.506455
12256 4 0.0525394 0.115608 0.526042
14418 4 0.0869183 0.00847833 0.655799
12012 4 0.0855653 0.00720919 0.555791
12381 3 0.121591 0.112023 0.544124
12241 1 0.0176904 0.112658 0.503377
12253 1 0.119659 0.108201 0.508257
16687 1 0.110994 0.0106558 0.572378
14530 4 0.0173215 0.0679744 0.597147
14655 3 0.0950568 0.109564 0.620362
14529 3 0.0367293 0.0683832 0.604012
12009 3 0.0317384 0.00366995 0.533245
14537 4 0.110374 0.0896654 0.619192
14416 4 0.106109 0.0398134 0.664111
14658 4 0.0813213 0.0944649 0.610787
14652 4 0.050072 0.112187 0.611675
14409 3 0.071689 0.00447954 0.642258
14407 1 0.0734624 0.0457534 0.591705
14411 4 0.0416822 0.0453664 0.60461
12144 4 0.121382 0.0487843 0.544942
14406 4 0.0232204 0.0361772 0.62724
14532 4 0.0348031 0.0764202 0.621132
14528 2 0.0576438 0.0938094 0.628375
14535 3 0.0932965 0.0729886 0.614703
14538 4 0.0766502 0.0687698 0.628847
16682 2 0.0286048 0.0131483 0.643886
14408 2 0.0542955 0.0469686 0.627702
14412 4 0.0598214 0.0243021 0.640278
14536 4 0.0992616 0.0536046 0.610014
14419 1 0.104187 0.0216592 0.6247
14657 4 0.078956 0.116295 0.630999
14649 3 0.0644122 0.100393 0.600081
14531 4 0.0505463 0.0839083 0.597752
14522 2 0.00728284 0.0619903 0.632098
14417 4 0.121824 0.0137095 0.647916
16813 1 0.106731 0.0668446 0.647121
14402 2 0.0190369 0.0271557 0.607848
14642 2 0.0179846 0.110557 0.611027
14650 4 0.0697368 0.113378 0.586378
14415 3 0.107899 0.0182906 0.660779
16686 4 0.0032886 0.00321648 0.639555
16807 1 0.0722763 0.0405489 0.664116
14656 4 0.109327 0.126178 0.615413
12255 3 0.0687433 0.122685 0.518608
16927 1 0.0657872 0.0232914 0.72363
17041 1 0.0361385 0.0845967 0.697074
17049 3 0.0709187 0.10779 0.718458
17050 4 0.0660234 0.0942517 0.705106
16944 4 0.114493 0.044171 0.738653
16923 3 0.0142613 0.0449736 0.72987
16924 4 0.0204903 0.0261696 0.721452
16939 1 0.0909444 0.0730311 0.714741
16930 4 0.0325239 0.0532396 0.736611
16936 4 0.0744646 0.0491922 0.737825
16922 2 0.0334319 0.0859398 0.736528
16809 3 0.023035 0.00586309 0.729333
17044 4 0.0182608 0.0974681 0.719287
16935 3 0.0936716 0.0498798 0.747496
16929 3 0.0531143 0.0536628 0.746298
16801 1 0.0270684 0.0173065 0.695689
16937 4 0.0887593 0.104699 0.729856
17055 3 0.103138 0.119403 0.737756
19210 4 0.0490566 0.00305004 0.809677
16814 2 0.114988 0.0156021 0.747549
19091 4 0.0405087 0.00331736 0.741277
19435 1 0.00149509 0.0994706 0.808722
16931 4 0.0552544 0.108419 0.730656
16926 4 0.00258315 0.039293 0.746471
16819 1 0.123691 0.0456008 0.687359
16584 4 0.114095 -0.00127006 0.672055
17047 1 0.0757665 0.118293 0.689139
17056 4 0.124001 0.11122 0.736108
16932 4 0.054889 0.0744082 0.751452
16817 4 0.0920298 0.0334856 0.758381
19207 1 0.0416542 0.0591679 0.779298
19451 4 0.092097 0.0593172 0.816751
16938 4 0.0984775 0.0725679 0.749678
16808 2 0.0669547 0.013412 0.757801
16811 4 0.050111 0.0362466 0.760195
19456 4 0.101564 0.0974728 0.830773
19443 3 0.0318636 0.0727522 0.824623
19327 1 0.0915437 0.0537528 0.78179
17052 4 0.0893902 0.120512 0.752678
19329 3 0.0675052 0.0532238 0.813144
19325 4 0.0118967 0.0602507 0.823937
17045 4 0.00432275 0.0893546 0.742295
16928 2 0.0754813 0.0931884 0.750233
16812 4 0.0161611 0.0309146 0.781795
19321 1 0.0578809 0.097586 0.802329
19201 1 0.022395 0.0339998 0.809049
19455 3 0.100596 0.0754772 0.828228
19331 4 0.0525351 0.0603273 0.824893
19209 3 0.0640736 0.0108015 0.819939
16802 2 0.0222938 0.0232404 0.760787
19214 2 0.099476 0.0301413 0.819448
19211 4 0.0710056 0.0320804 0.817442
19330 4 0.0639843 0.0630235 0.798326
19444 4 0.0309305 0.0930378 0.816437
19216 4 0.116312 0.00206378 0.808372
16818 4 0.112243 -0.0022435 0.71889
19204 4 0.00308911 -0.000629403 0.811443
19322 2 0.0559894 0.0236443 0.854012
19328 2 0.0931271 0.0611492 0.861116
19332 4 0.0290032 0.026148 0.864616
19452 4 0.0643227 0.0537814 0.854782
21727 1 0.0566277 0.0612839 0.881146
21736 4 0.0899643 0.0675642 0.883971
21615 3 0.10688 0.0150803 0.902701
21735 3 0.0995735 0.0590993 0.897751
19442 2 0.0338999 0.11077 0.880502
21617 4 0.0968725 0.0359259 0.901983
19457 4 0.101826 0.0944179 0.858121
19449 3 0.0602456 0.0673391 0.841084
21733 1 0.0880985 0.0998781 0.880023
19450 4 0.0398695 0.0788356 0.840666
21610 4 0.00994802 0.0197977 0.902043
19575 3 0.0879199 0.0996568 0.844725
19570 4 0.080748 0.0767856 0.840951
19436 2 0.0150638 0.0826143 0.853762
19446 4 0.0255975 0.0846833 0.874582
19576 4 0.0788254 0.11764 0.847931
21858 4 0.0985357 0.107981 0.911387
19202 2 0.00415595 0.0264624 0.852286
21737 4 0.0908889 0.068562 0.913298
21613 1 0.110422 0.0191387 0.868867
21843 3 0.00365796 0.102466 0.94245
21722 2 0.0462166 0.087133 0.94856
19208 2 0.0180181 0.00566498 0.880799
21485 4 0.00321818 0.0016927 0.838422
19578 4 0.0597876 0.121584 0.874991
21614 2 0.115561 0.0260121 0.936481
115 1 0.00697024 0.0449447 0.973346
21605 4 0.00520759 0.0435508 0.933848
21844 4 0.012886 0.116076 0.930421
21498 4 0.0765172 0.00252049 0.859716
21608 2 0.0761449 0.0404898 0.919544
21734 2 0.12304 0.0843935 0.915761
21612 4 0.05156 0.0209004 0.925595
21855 3 0.109325 0.123707 0.903068
19337 4 0.120258 0.0689668 0.836231
21724 4 0.0459795 0.0582659 0.909202
127 1 0.0887792 0.0640473 0.953902
19338 4 0.117821 0.0467686 0.857029
21730 4 0.0125023 0.0678513 0.913183
21618 4 0.0888927 0.0386887 0.942497
21729 3 0.035153 0.0763602 0.916785
21738 4 0.122525 0.0617281 0.900927
19441 1 0.0421761 0.113454 0.836165
23897 4 0.0989275 0.0102419 0.918119
21723 3 0.00615818 0.0651359 0.932033
21728 2 0.0770683 0.0920107 0.920964
21731 4 0.0437167 0.0964009 0.919129
475 1 0.00823795 0.100267 0.976817
23888 2 0.0684323 0.0189548 0.948443
21611 4 0.0308339 0.0679822 0.934177
21849 3 0.0331916 0.116804 0.920047
21732 4 0.0719986 0.0853173 0.942103
21845 4 0.0238065 0.105254 0.953655
21602 2 0.0279458 0.038455 0.920645
21609 3 0.0100538 0.00291354 0.91253
19212 4 0.055402 0.00295036 0.834514
21850 4 0.0264296 0.118644 0.902784
23885 4 0.00186702 0.0110557 0.92752
21601 1 0.0125616 0.0539629 0.888425
21616 4 0.102838 -7.67035e-05 0.889785
618 4 0.0949145 0.232071 0.060058
368 2 0.0640403 0.161687 0.0530571
371 4 0.0208093 0.182545 0.0366407
375 3 0.0971635 0.133196 0.0596049
377 4 0.104493 0.153697 0.0663935
365 4 0.0497603 0.1571 0.0279404
609 3 0.0391893 0.232557 0.0423582
488 2 0.077591 0.204868 0.0420076
489 3 0.0338876 0.192265 0.0489529
490 4 0.0409103 0.178703 0.0610779
491 4 0.0292023 0.213831 0.0487215
492 4 0.0519639 0.187537 0.0377151
495 3 0.101732 0.176832 0.0694329
610 4 0.0601951 0.229853 0.039897
363 3 0.0434739 0.137376 0.0327748
616 4 0.101104 0.222959 0.0323792
483 3 0.0417832 0.177664 0.0251354
2881 1 0.0241053 0.151953 0.0687874
364 4 0.0199455 0.136906 0.0278126
615 3 0.109411 0.235298 0.0459047
496 4 0.0839519 0.183028 0.0575444
484 4 0.0375866 0.182806 0.00933493
494 2 0.106011 0.214357 0.0779385
2887 1 0.0593274 0.19497 0.0802648
612 4 0.0211743 0.240604 0.0322691
376 4 0.114356 0.134887 0.0454475
482 2 0.00516458 0.212994 0.0249371
22086 4 0.00884506 0.22037 0.00315724
373 1 0.0869962 0.137743 0.0221922
366 4 0.0423799 0.133458 0.0496016
497 4 0.0924933 0.186966 0.0841249
372 4 0.0760972 0.133214 0.0535487
504 4 0.11894 0.189956 0.0663865
481 1 0.0825622 0.24131 0.0165308
2755 1 0.00938961 0.2334 0.0642913
3004 4 0.00634707 0.231432 0.125951
2891 4 0.0621597 0.200969 0.165145
2895 3 0.0942283 0.176466 0.152949
2770 4 0.0290068 0.129293 0.15699
2773 1 0.0863067 0.131457 0.0949412
3010 4 0.0366992 0.235147 0.142241
3018 4 0.0677404 0.240303 0.160167
2897 4 0.101036 0.197672 0.153685
2882 2 0.0411016 0.22294 0.164155
3014 2 0.110172 0.238828 0.11963
2767 1 0.111311 0.149784 0.134243
3015 3 0.115665 0.198575 0.139662
2776 4 0.105301 0.160843 0.160818
2896 4 0.105026 0.179142 0.1361
2761 1 0.0459864 0.149991 0.139296
2888 2 0.083468 0.221489 0.149047
3009 3 0.0170114 0.243214 0.138366
3017 4 0.105891 0.214927 0.13252
2889 3 0.0553398 0.180358 0.162509
2762 2 0.00911217 0.181303 0.162164
2995 1 0.0312386 0.202971 0.130983
2898 4 0.0731364 0.168655 0.154451
2893 1 0.0921453 0.189473 0.112712
2890 4 0.0364146 0.1813 0.152663
498 4 0.10475 0.230882 0.0963564
3007 1 0.0185567 0.248014 0.106314
2763 3 0.00965015 0.133544 0.164106
3006 4 0.00435671 0.239182 0.153172
595 1 0.0322912 0.247752 0.00586143
5161 1 0.0284476 0.198709 0.216345
5169 3 0.0517027 0.16272 0.230369
5170 4 0.0607746 0.18013 0.222288
5171 4 0.0292409 0.161091 0.233697
5051 4 0.0582648 0.141924 0.228935
5168 2 0.0769021 0.194019 0.23583
5047 1 0.0767985 0.189789 0.193553
5163 3 0.00882707 0.168496 0.240446
5292 4 0.0639844 0.220853 0.235695
4927 1 0.0983851 0.147558 0.215332
5041 1 0.0373206 0.151275 0.190224
5042 2 0.0246329 0.130614 0.236262
2892 4 0.0602617 0.168691 0.177432
2778 4 0.105059 0.141792 0.183576
5290 4 0.0259467 0.212574 0.238194
5172 4 0.0610495 0.170882 0.248223
5175 3 0.117095 0.151209 0.251293
5289 3 0.0438535 0.22366 0.244118
7683 3 0.0131574 0.210552 0.316404
7562 2 0.0494605 0.199572 0.329068
2765 4 0.0125001 0.212599 0.170767
5296 4 0.0926492 0.203789 0.251382
5410 4 0.0406368 0.244957 0.247135
2775 3 0.120977 0.152657 0.171111
7690 4 0.0531538 0.231451 0.328792
5057 4 0.102219 0.136228 0.254578
5297 4 0.102874 0.168499 0.256621
7452 4 0.0672815 0.127986 0.31344
5283 3 0.00743237 0.203615 0.245554
5288 2 0.0789506 0.23121 0.254924
5166 4 -0.00221709 0.150898 0.243148
7327 1 0.00692977 0.14933 0.276315
5282 2 0.00240565 0.246864 0.248767
5162 2 0.0426836 0.184632 0.262014
7689 3 0.0319619 0.237782 0.328508
7695 3 0.11991 0.216344 0.31591
5176 4 0.124793 0.153431 0.234579
5298 4 0.119865 0.197909 0.269441
7576 4 0.110646 0.195969 0.312158
5165 4 0.0144284 0.183248 0.255583
7565 4 0.0270588 0.194876 0.310427
7563 3 0.0319264 0.178514 0.301792
7561 1 0.0556655 0.216292 0.285876
7446 4 0.0127854 0.13203 0.322747
7448 2 0.0766788 0.157446 0.318058
7572 4 0.0794922 0.179595 0.298261
7564 4 0.0418318 0.179624 0.286072
7570 4 0.0687351 0.153413 0.279008
7458 4 0.103182 0.148768 0.315654
7577 4 0.0826113 0.21681 0.302927
5286 4 0.0502292 0.212958 0.25942
7578 4 0.0785906 0.190556 0.324959
5295 3 0.108824 0.190401 0.256041
7568 2 0.0786934 0.240404 0.315426
5048 2 0.0763372 0.150879 0.257539
7567 1 0.10875 0.164813 0.284948
7684 4 0.017078 0.232621 0.315181
7442 2 0.0352676 0.135771 0.308637
5417 4 0.102858 0.241714 0.270631
7697 4 0.103976 0.226798 0.326751
7445 4 0.0162983 0.159757 0.302161
7569 3 0.0619093 0.168093 0.29013
5294 2 0.107975 0.219 0.284029
7566 4 0.0509904 0.164459 0.307442
7575 3 0.087168 0.195709 0.308753
2768 2 0.0793667 0.148064 0.172917
5177 4 0.125687 0.189076 0.242986
3023 4 0.121065 0.248466 0.17167
7571 4 0.0226676 0.211823 0.333263
2764 4 0.000915812 0.153343 0.166434
7688 2 0.0666521 0.233898 0.352402
9967 1 0.0604089 0.186131 0.3721
10087 1 0.101413 0.202779 0.396908
9969 3 0.0791764 0.15627 0.406108
9971 4 0.069576 0.176218 0.401176
9976 4 0.101661 0.151118 0.40102
9970 4 0.0670896 0.137682 0.406739
7574 2 0.0957608 0.199776 0.341912
7692 4 0.0650908 0.202356 0.350237
7818 4 0.0975642 0.229059 0.352812
9961 1 0.0109539 0.199343 0.407108
7815 3 0.105588 0.242771 0.339762
9975 3 0.12262 0.154494 0.407232
10081 1 0.0732939 0.233776 0.418773
10089 3 0.0612436 0.184484 0.416131
9845 4 0.00475475 0.124797 0.446355
10084 4 0.00664492 0.192609 0.434406
12259 1 0.120718 0.129859 0.443774
12251 4 0.0282592 0.145993 0.491889
9841 1 0.0247305 0.139789 0.344651
10212 4 0.00526681 0.242432 0.432165
10083 3 0.0244413 0.182406 0.439723
10218 4 0.0833338 0.24013 0.453366
10088 2 0.10301 0.214033 0.461335
9973 1 0.104342 0.134801 0.378178
12367 1 0.0368496 0.184526 0.477474
9962 2 0.0494871 0.148285 0.427019
10090 4 0.0766161 0.199439 0.422307
10085 4 0.0320641 0.196095 0.451395
9963 3 0.0104343 0.142732 0.433977
10215 3 0.100215 0.252323 0.442841
12373 1 0.0824998 0.16736 0.47095
9968 2 0.0968544 0.178995 0.432311
9965 4 0.0246313 0.159311 0.439482
9978 4 0.120792 0.160705 0.423898
10210 4 0.0419469 0.235736 0.437045
10196 2 0.0104816 0.218392 0.445542
9966 4 0.0249953 0.131222 0.424402
12376 4 0.0635218 0.164086 0.490963
10082 2 0.0593465 0.20498 0.444305
10216 4 0.100688 0.240939 0.42736
9972 4 0.0834819 0.191751 0.455177
10086 4 0.0431387 0.183991 0.426841
12496 4 0.112089 0.21735 0.48258
10092 4 0.074353 0.16328 0.423154
10097 4 0.118682 0.243174 0.4504
12361 1 0.0212574 0.138316 0.467219
12495 3 0.116664 0.210435 0.497666
12375 3 0.0509442 0.148235 0.497754
10098 4 0.121018 0.196549 0.440167
10195 1 0.00214963 0.199359 0.35369
12368 2 0.0784969 0.176511 0.510405
12372 4 0.0362735 0.155227 0.513563
12248 2 0.04466 0.151467 0.534426
12378 4 0.0592388 0.196385 0.517607
12488 2 0.0660201 0.19809 0.539958
12492 4 0.0357149 0.179897 0.540078
12498 4 0.0892574 0.215549 0.538221
12254 2 0.0961693 0.149942 0.536834
12384 4 0.0905038 0.177916 0.532238
12258 4 0.0717249 0.144039 0.524843
12612 4 0.0457197 0.218951 0.546903
12482 2 0.0229341 0.2022 0.554527
12609 3 0.0396317 0.238268 0.539721
12362 2 0.0303904 0.189813 0.517682
14773 1 0.101231 0.212154 0.581445
12485 4 0.0114202 0.230961 0.537211
12494 2 0.087174 0.243995 0.543392
12497 4 0.11557 0.229494 0.509275
12263 4 0.113199 0.134407 0.549197
12374 2 0.111274 0.199575 0.527956
14647 1 0.0962439 0.134018 0.590921
14890 4 0.036223 0.198107 0.630325
12369 3 0.016326 0.154416 0.505061
12252 4 0.0323315 0.127589 0.546288
12487 1 0.0792874 0.224945 0.506656
12491 4 0.00157147 0.202616 0.519503
12377 4 0.102722 0.195023 0.504877
12257 4 0.0630178 0.129011 0.502018
12603 3 0.00768952 0.247966 0.551222
14772 4 0.118728 0.195844 0.652928
15004 4 0.00234749 0.250101 0.624841
14887 1 0.0570391 0.25034 0.584368
12242 2 0.0013399 0.128528 0.535954
14886 4 0.00144077 0.205222 0.632802
14775 3 0.117903 0.189724 0.636582
14882 2 0.0173715 0.229639 0.636991
14884 4 0.0171226 0.196383 0.60721
14897 4 0.0725776 0.220053 0.621065
14875 1 0.00178139 0.168766 0.594557
15009 3 0.0565307 0.243024 0.617542
14764 4 0.00453817 0.143591 0.60728
14889 3 0.0552542 0.211495 0.631445
14892 4 0.0817949 0.188543 0.614004
14645 4 0.0255069 0.13151 0.626963
14768 2 0.0869983 0.201892 0.655489
14891 4 0.0407401 0.243521 0.604713
14895 3 0.0928315 0.208556 0.615981
14763 3 0.00972459 0.147221 0.624522
16933 1 0.0907077 0.143086 0.649229
14769 3 0.0786781 0.176928 0.628871
14770 4 0.0626544 0.162088 0.632248
14776 4 0.0976383 0.177004 0.636448
14766 4 0.0186119 0.175591 0.661052
14777 4 0.10916 0.207419 0.627377
14771 4 0.0466141 0.231426 0.632518
14896 4 0.10062 0.227469 0.603023
14765 4 0.0139919 0.169853 0.627873
14648 2 0.0555858 0.135372 0.623381
15012 4 0.0912043 0.231549 0.65565
14883 3 0.0158129 0.191483 0.623665
14651 4 0.0648222 0.193926 0.641129
14762 2 0.0396818 0.175206 0.646359
14881 1 0.0150086 0.221515 0.594283
14767 1 0.0525547 0.188689 0.602352
12370 4 -0.00108644 0.142855 0.512907
14761 1 0.0400416 0.13118 0.572655
15006 4 0.0137487 0.244499 0.654997
15008 2 0.0975837 0.246434 0.634961
12371 4 0.011163 0.176886 0.504158
17167 1 0.0341979 0.207588 0.682982
17169 3 0.0588805 0.150539 0.710998
17170 4 0.0378991 0.145124 0.705609
17171 4 0.032256 0.23119 0.734677
17175 3 0.0845196 0.17272 0.692298
17176 4 0.0839665 0.188084 0.680954
17177 4 0.100035 0.189127 0.700282
17289 3 0.037156 0.217621 0.720949
17290 4 0.0501663 0.199977 0.722718
17291 4 0.0426333 0.233761 0.709377
17295 3 0.0928537 0.206634 0.690303
17297 4 0.0835895 0.220789 0.7015
17172 4 0.0522904 0.154574 0.728588
17178 4 0.0960301 0.152687 0.691188
17292 4 0.0162186 0.20328 0.718242
17057 4 0.0712976 0.168511 0.70714
17168 2 0.0783443 0.192851 0.719155
17054 2 0.108524 0.148853 0.712727
17162 2 0.0323071 0.175761 0.721551
17296 4 0.0982185 0.218168 0.676938
17180 2 0.0974088 0.235204 0.720819
17298 4 0.104929 0.206041 0.72789
17155 1 0.0206239 0.153766 0.680335
17415 3 0.0933479 0.238772 0.670984
17048 2 0.069286 0.138904 0.741918
17058 4 0.0990554 0.140413 0.732685
17410 4 0.0216198 0.239277 0.6852
17051 4 0.0705878 0.128893 0.712212
17042 2 0.028944 0.124112 0.720543
19804 4 0.0258211 0.238038 0.830946
19555 1 0.00121723 0.152152 0.773533
19687 1 0.040764 0.215889 0.756244
17403 3 0.0100477 0.244811 0.6718
19693 1 0.114882 0.215815 0.750182
17053 1 0.121475 0.170801 0.673578
17304 4 0.118114 0.244527 0.736283
19549 1 0.0153704 0.1628 0.825157
19567 1 0.071834 0.183853 0.793967
19573 1 0.10166 0.129102 0.823816
17288 2 0.0665023 0.246046 0.696837
19681 1 0.0161613 0.231778 0.802474
17409 3 0.0248166 0.247534 0.701635
17166 4 0.00531316 0.137892 0.731234
19447 1 0.105848 0.128819 0.773217
17282 2 0.00150316 0.230297 0.730571
19813 1 0.100652 0.200491 0.830219
19819 1 0.125553 0.249104 0.808586
17412 4 0.0113983 0.249719 0.715205
19562 2 0.0626991 0.169692 0.854236
19568 2 0.102836 0.185697 0.877677
19572 4 0.0475727 0.141995 0.853389
19686 4 0.0789274 0.192382 0.867277
21976 4 0.096572 0.179791 0.899759
19564 4 0.0352159 0.171114 0.862872
19571 4 0.0822155 0.148055 0.861686
19563 3 0.0297137 0.147504 0.861261
19692 4 0.100514 0.215451 0.854083
19689 3 0.0793853 0.207956 0.854085
19691 4 0.0676678 0.22686 0.854496
19448 2 0.110059 0.140967 0.863693
21847 1 0.0696552 0.146123 0.893695
21961 1 0.047623 0.202445 0.887447
19690 4 0.0711429 0.197428 0.840501
19683 3 0.0163954 0.181088 0.85615
19565 4 0.00953707 0.158524 0.853887
22075 1 0.00887096 0.148194 0.901357
19685 4 0.0212689 0.194959 0.843396
19682 2 0.0453216 0.217648 0.837486
22199 4 0.00406069 0.173128 0.984074
19566 4 0.0194108 0.13076 0.867334
21857 4 0.102814 0.144069 0.909864
19569 3 0.0681242 0.129321 0.859738
22210 4 0.0508469 0.216794 0.91278
19695 3 0.122266 0.216777 0.858698
19577 4 0.123924 0.165853 0.87179
253 1 0.0945848 0.129647 0.967011
22207 1 0.0757204 0.244213 0.890587
361 1 0.0295107 0.147412 0.99873
19688 2 0.0935573 0.245117 0.849461
21970 4 0.0666004 0.16495 0.953661
21975 3 0.103036 0.166793 0.912238
22091 4 0.0452555 0.230023 0.939117
21851 4 0.0504243 0.197003 0.954124
22096 4 0.0766503 0.22121 0.934613
21967 1 0.0755567 0.197065 0.914563
22082 2 0.0277972 0.241053 0.958527
21848 2 0.0735601 0.145013 0.935094
21978 4 0.101588 0.142278 0.944822
21842 2 0.0259728 0.138426 0.947576
21856 4 0.108749 0.124882 0.884936
22095 3 0.093731 0.234423 0.941352
22084 4 0.0197734 0.20758 0.973316
21854 2 0.122183 0.138843 0.930483
367 1 0.0696179 0.188354 0.998138
22195 1 0.0272671 0.194666 0.936756
21962 2 0.0197647 0.193227 0.993926
21965 4 0.0503411 0.187252 0.977432
22102 4 0.11568 0.228061 0.943906
22089 3 0.0620559 0.21824 0.950533
21971 4 0.0507669 0.225774 0.966185
21963 3 0.00738792 0.169661 0.964246
21852 4 0.0453465 0.131995 0.9291
22098 4 0.08093 0.231176 0.955072
22083 3 0.0426156 0.205164 0.970014
21977 4 0.0842367 0.169011 0.926339
22090 4 0.0290013 0.165529 0.958633
21974 2 0.0984543 0.177679 0.947121
21969 3 0.0502659 0.174399 0.960855
22209 3 0.0577691 0.229084 0.925654
19811 4 0.0466969 0.238729 0.877655
19809 3 0.0546749 0.243416 0.862222
22087 1 0.031897 0.244887 0.905626
21966 4 -0.00502794 0.153082 0.956399
19698 4 0.124658 0.206035 0.873087
487 1 0.122053 0.224273 0.973299
21863 4 0.12137 0.169666 0.922137
602 2 0.0326377 0.276366 0.0411015
850 4 0.0656954 0.347282 0.0280834
722 2 0.0422321 0.327943 0.0311165
726 4 0.0458389 0.285815 0.0170187
614 2 0.11584 0.273276 0.0644586
728 2 0.0789119 0.299781 0.0570737
729 3 0.0639271 0.29273 0.0273586
730 4 0.0772204 0.278078 0.0360512
731 4 0.0732042 0.312684 0.0236432
732 4 0.050542 0.299602 0.0422516
735 3 0.101203 0.277935 0.0346454
846 4 0.0168577 0.33355 0.044405
737 4 0.107657 0.292515 0.0484008
849 3 0.0803091 0.330996 0.0308328
852 4 0.0990254 0.341662 0.0248645
851 4 0.0818142 0.329929 0.0478594
723 3 0.0248348 0.290468 0.0107595
604 4 0.0123346 0.271796 0.0181745
725 4 0.0196624 0.311155 0.0192451
3121 1 0.0257165 0.316882 0.0655289
738 4 0.0827931 0.276521 0.0682954
848 2 0.0934188 0.34973 0.0605142
736 4 0.11388 0.280442 0.0219337
855 3 0.115632 0.355546 0.0295139
978 4 0.103769 0.367348 0.0427634
617 4 0.103238 0.258071 0.041966
3013 1 0.0828709 0.254737 0.0897463
608 2 0.0713248 0.254309 0.0533032
603 3 0.00213756 0.256065 0.0292334
727 1 0.122868 0.311812 0.0202208
857 4 0.117021 0.373751 0.0196815
611 4 0.042316 0.25308 0.0498759
3370 4 0.0519547 0.373512 0.145052
3252 4 0.106746 0.31581 0.142346
605 4 0.00158909 0.264473 0.0448565
3135 3 0.0941693 0.274019 0.136226
3144 4 0.111181 0.269516 0.14827
3258 4 0.114377 0.322261 0.116592
3137 4 0.105572 0.288377 0.126501
3131 4 0.0449541 0.294587 0.129126
3138 4 0.0739946 0.286399 0.143062
3123 3 0.00354795 0.309341 0.156068
3128 2 0.087494 0.30848 0.161521
3005 4 0.0107718 0.297827 0.14239
3136 4 0.0859027 0.254754 0.130631
3127 1 0.0576953 0.298629 0.105059
3248 2 0.0623808 0.345512 0.15547
3366 4 0.0125378 0.364594 0.14938
3250 4 0.0565828 0.316503 0.150297
3255 3 0.0999151 0.3109 0.126779
3249 3 0.0621451 0.30407 0.136604
3257 4 0.0839348 0.361383 0.141961
3130 4 0.0189975 0.265964 0.132393
3011 4 0.0349549 0.277282 0.153122
3241 1 0.0204439 0.332411 0.131143
3256 4 0.0761053 0.317265 0.125448
3254 2 0.108862 0.349448 0.150775
3129 3 0.0277311 0.283658 0.137558
3253 1 0.0796509 0.349059 0.118659
3008 2 0.0566153 0.259527 0.144956
3139 1 0.116742 0.323869 0.0914358
858 4 0.119864 0.339841 0.0670805
842 2 0.0756614 0.374244 0.0319233
3372 4 0.0384865 0.362968 0.167407
956 2 0.0019055 0.362378 0.0468744
3251 4 0.0892138 0.337369 0.167226
5407 1 0.0714964 0.312696 0.20101
5521 1 0.0325076 0.339045 0.220315
5529 3 0.0425969 0.300517 0.234597
5530 4 0.0227989 0.301606 0.22692
5535 3 0.0817176 0.324376 0.231855
5536 4 0.090922 0.331143 0.217586
5656 4 0.0867043 0.341334 0.243153
5538 4 0.0590341 0.316979 0.231637
3132 4 0.0689598 0.29617 0.175353
5411 4 0.0501191 0.280532 0.23654
5533 1 0.112448 0.338189 0.196568
5401 1 0.0178186 0.274286 0.210983
5537 4 0.0951517 0.307784 0.239303
5650 4 0.0401036 0.367052 0.230697
5522 2 0.0042416 0.347038 0.261351
5652 4 0.00819995 0.365245 0.240605
5167 1 0.06841 0.247413 0.222026
5527 1 0.0709413 0.372521 0.230592
7921 1 0.00893031 0.354618 0.304242
5534 2 0.117777 0.33054 0.241116
5531 4 0.0347471 0.353911 0.258176
3002 2 0.00724523 0.263881 0.165561
5649 3 0.0294206 0.371246 0.24633
7808 2 0.0721395 0.281425 0.326842
5532 4 0.0386726 0.310622 0.251565
3242 2 0.0112417 0.347815 0.16847
7814 2 0.122219 0.28251 0.331688
3122 2 0.0425655 0.299911 0.167584
5523 3 0.00262613 0.310586 0.225241