# LAMMPS data file written by OVITO Basic 3.5.4
24000 atoms
4 atom types
0.0 77.9761 xlo xhi
0.0 77.9761 ylo yhi
0.0 76.4216 zlo zhi

Masses

1 137.327  # Ba
2 140.90765  # Pr
3 58.933195  # Co
4 15.999  # O

Atoms  # charge

1 1 0.0 1.9494025 1.9494025 0.0
2 2 0.0 1.9494025 1.9494025 3.82108
3 3 0.0 0.0 0.0 1.92582432
4 4 0.0 0.0 0.0 0.0
5 4 0.0 0.0 1.9494025 2.10541508
6 4 0.0 0.0 0.0 3.82108
7 1 0.0 5.8482075 1.9494025 0.0
8 2 0.0 5.8482075 1.9494025 3.82108
9 3 0.0 3.898805 0.0 1.92582432
10 4 0.0 3.898805 0.0 0.0
11 4 0.0 3.898805 1.9494025 2.10541508
12 4 0.0 3.898805 0.0 3.82108
13 1 0.0 9.7470125 1.9494025 0.0
14 2 0.0 9.7470125 1.9494025 3.82108
15 3 0.0 7.79761 0.0 1.92582432
16 4 0.0 7.79761 0.0 0.0
17 4 0.0 7.79761 1.9494025 2.10541508
18 4 0.0 7.79761 0.0 3.82108
19 1 0.0 13.6458175 1.9494025 0.0
20 2 0.0 13.6458175 1.9494025 3.82108
21 3 0.0 11.696415 0.0 1.92582432
22 4 0.0 11.696415 0.0 0.0
23 4 0.0 11.696415 1.9494025 2.10541508
24 4 0.0 11.696415 0.0 3.82108
25 1 0.0 17.5446225 1.9494025 0.0
26 2 0.0 17.5446225 1.9494025 3.82108
27 3 0.0 15.59522 0.0 1.92582432
28 4 0.0 15.59522 0.0 0.0
29 4 0.0 15.59522 1.9494025 2.10541508
30 4 0.0 15.59522 0.0 3.82108
31 1 0.0 21.4434275 1.9494025 0.0
32 2 0.0 21.4434275 1.9494025 3.82108
33 3 0.0 19.494025 0.0 1.92582432
34 4 0.0 19.494025 0.0 0.0
35 4 0.0 19.494025 1.9494025 2.10541508
36 4 0.0 19.494025 0.0 3.82108
37 1 0.0 25.3422325 1.9494025 0.0
38 2 0.0 25.3422325 1.9494025 3.82108
39 3 0.0 23.39283 0.0 1.92582432
40 4 0.0 23.39283 0.0 0.0
41 4 0.0 23.39283 1.9494025 2.10541508
42 4 0.0 23.39283 0.0 3.82108
43 1 0.0 29.2410375 1.9494025 0.0
44 2 0.0 29.2410375 1.9494025 3.82108
45 3 0.0 27.291635 0.0 1.92582432
46 4 0.0 27.291635 0.0 0.0
47 4 0.0 27.291635 1.9494025 2.10541508
48 4 0.0 27.291635 0.0 3.82108
49 1 0.0 33.1398425 1.9494025 0.0
50 2 0.0 33.1398425 1.9494025 3.82108
51 3 0.0 31.19044 0.0 1.92582432
52 4 0.0 31.19044 0.0 0.0
53 4 0.0 31.19044 1.9494025 2.10541508
54 4 0.0 31.19044 0.0 3.82108
55 1 0.0 37.0386475 1.9494025 0.0
56 2 0.0 37.0386475 1.9494025 3.82108
57 3 0.0 35.089245 0.0 1.92582432
58 4 0.0 35.089245 0.0 0.0
59 4 0.0 35.089245 1.9494025 2.10541508
60 4 0.0 35.089245 0.0 3.82108
61 1 0.0 40.9374525 1.9494025 0.0
62 2 0.0 40.9374525 1.9494025 3.82108
63 3 0.0 38.98805 0.0 1.92582432
64 4 0.0 38.98805 0.0 0.0
65 4 0.0 38.98805 1.9494025 2.10541508
66 4 0.0 38.98805 0.0 3.82108
67 1 0.0 44.8362575 1.9494025 0.0
68 2 0.0 44.8362575 1.9494025 3.82108
69 3 0.0 42.886855 0.0 1.92582432
70 4 0.0 42.886855 0.0 0.0
71 4 0.0 42.886855 1.9494025 2.10541508
72 4 0.0 42.886855 0.0 3.82108
73 1 0.0 48.7350625 1.9494025 0.0
74 2 0.0 48.7350625 1.9494025 3.82108
75 3 0.0 46.78566 0.0 1.92582432
76 4 0.0 46.78566 0.0 0.0
77 4 0.0 46.78566 1.9494025 2.10541508
78 4 0.0 46.78566 0.0 3.82108
79 1 0.0 52.6338675 1.9494025 0.0
80 2 0.0 52.6338675 1.9494025 3.82108
81 3 0.0 50.684465 0.0 1.92582432
82 4 0.0 50.684465 0.0 0.0
83 4 0.0 50.684465 1.9494025 2.10541508
84 4 0.0 50.684465 0.0 3.82108
85 1 0.0 56.5326725 1.9494025 0.0
86 2 0.0 56.5326725 1.9494025 3.82108
87 3 0.0 54.58327 0.0 1.92582432
88 4 0.0 54.58327 0.0 0.0
89 4 0.0 54.58327 1.9494025 2.10541508
90 4 0.0 54.58327 0.0 3.82108
91 1 0.0 60.4314775 1.9494025 0.0
92 2 0.0 60.4314775 1.9494025 3.82108
93 3 0.0 58.482075 0.0 1.92582432
94 4 0.0 58.482075 0.0 0.0
95 4 0.0 58.482075 1.9494025 2.10541508
96 4 0.0 58.482075 0.0 3.82108
97 1 0.0 64.3302825 1.9494025 0.0
98 2 0.0 64.3302825 1.9494025 3.82108
99 3 0.0 62.38088 0.0 1.92582432
100 4 0.0 62.38088 0.0 0.0
101 4 0.0 62.38088 1.9494025 2.10541508
102 4 0.0 62.38088 0.0 3.82108
103 1 0.0 68.2290875 1.9494025 0.0
104 2 0.0 68.2290875 1.9494025 3.82108
105 3 0.0 66.279685 0.0 1.92582432
106 4 0.0 66.279685 0.0 0.0
107 4 0.0 66.279685 1.9494025 2.10541508
108 4 0.0 66.279685 0.0 3.82108
109 1 0.0 72.1278925 1.9494025 0.0
110 2 0.0 72.1278925 1.9494025 3.82108
111 3 0.0 70.17849 0.0 1.92582432
112 4 0.0 70.17849 0.0 0.0
113 4 0.0 70.17849 1.9494025 2.10541508
114 4 0.0 70.17849 0.0 3.82108
115 1 0.0 76.0266975 1.9494025 0.0
116 2 0.0 76.0266975 1.9494025 3.82108
117 3 0.0 74.077295 0.0 1.92582432
118 4 0.0 74.077295 0.0 0.0
119 4 0.0 74.077295 1.9494025 2.10541508
120 4 0.0 74.077295 0.0 3.82108
121 1 0.0 1.9494025 5.8482075 0.0
122 2 0.0 1.9494025 5.8482075 3.82108
123 3 0.0 0.0 3.898805 1.92582432
124 4 0.0 0.0 3.898805 0.0
125 4 0.0 0.0 5.8482075 2.10541508
126 4 0.0 0.0 3.898805 3.82108
127 1 0.0 5.8482075 5.8482075 0.0
128 2 0.0 5.8482075 5.8482075 3.82108
129 3 0.0 3.898805 3.898805 1.92582432
130 4 0.0 3.898805 3.898805 0.0
131 4 0.0 3.898805 5.8482075 2.10541508
132 4 0.0 3.898805 3.898805 3.82108
133 1 0.0 9.7470125 5.8482075 0.0
134 2 0.0 9.7470125 5.8482075 3.82108
135 3 0.0 7.79761 3.898805 1.92582432
136 4 0.0 7.79761 3.898805 0.0
137 4 0.0 7.79761 5.8482075 2.10541508
138 4 0.0 7.79761 3.898805 3.82108
139 1 0.0 13.6458175 5.8482075 0.0
140 2 0.0 13.6458175 5.8482075 3.82108
141 3 0.0 11.696415 3.898805 1.92582432
142 4 0.0 11.696415 3.898805 0.0
143 4 0.0 11.696415 5.8482075 2.10541508
144 4 0.0 11.696415 3.898805 3.82108
145 1 0.0 17.5446225 5.8482075 0.0
146 2 0.0 17.5446225 5.8482075 3.82108
147 3 0.0 15.59522 3.898805 1.92582432
148 4 0.0 15.59522 3.898805 0.0
149 4 0.0 15.59522 5.8482075 2.10541508
150 4 0.0 15.59522 3.898805 3.82108
151 1 0.0 21.4434275 5.8482075 0.0
152 2 0.0 21.4434275 5.8482075 3.82108
153 3 0.0 19.494025 3.898805 1.92582432
154 4 0.0 19.494025 3.898805 0.0
155 4 0.0 19.494025 5.8482075 2.10541508
156 4 0.0 19.494025 3.898805 3.82108
157 1 0.0 25.3422325 5.8482075 0.0
158 2 0.0 25.3422325 5.8482075 3.82108
159 3 0.0 23.39283 3.898805 1.92582432
160 4 0.0 23.39283 3.898805 0.0
161 4 0.0 23.39283 5.8482075 2.10541508
162 4 0.0 23.39283 3.898805 3.82108
163 1 0.0 29.2410375 5.8482075 0.0
164 2 0.0 29.2410375 5.8482075 3.82108
165 3 0.0 27.291635 3.898805 1.92582432
166 4 0.0 27.291635 3.898805 0.0
167 4 0.0 27.291635 5.8482075 2.10541508
168 4 0.0 27.291635 3.898805 3.82108
169 1 0.0 33.1398425 5.8482075 0.0
170 2 0.0 33.1398425 5.8482075 3.82108
171 3 0.0 31.19044 3.898805 1.92582432
172 4 0.0 31.19044 3.898805 0.0
173 4 0.0 31.19044 5.8482075 2.10541508
174 4 0.0 31.19044 3.898805 3.82108
175 1 0.0 37.0386475 5.8482075 0.0
176 2 0.0 37.0386475 5.8482075 3.82108
177 3 0.0 35.089245 3.898805 1.92582432
178 4 0.0 35.089245 3.898805 0.0
179 4 0.0 35.089245 5.8482075 2.10541508
180 4 0.0 35.089245 3.898805 3.82108
181 1 0.0 40.9374525 5.8482075 0.0
182 2 0.0 40.9374525 5.8482075 3.82108
183 3 0.0 38.98805 3.898805 1.92582432
184 4 0.0 38.98805 3.898805 0.0
185 4 0.0 38.98805 5.8482075 2.10541508
186 4 0.0 38.98805 3.898805 3.82108
187 1 0.0 44.8362575 5.8482075 0.0
188 2 0.0 44.8362575 5.8482075 3.82108
189 3 0.0 42.886855 3.898805 1.92582432
190 4 0.0 42.886855 3.898805 0.0
191 4 0.0 42.886855 5.8482075 2.10541508
192 4 0.0 42.886855 3.898805 3.82108
193 1 0.0 48.7350625 5.8482075 0.0
194 2 0.0 48.7350625 5.8482075 3.82108
195 3 0.0 46.78566 3.898805 1.92582432
196 4 0.0 46.78566 3.898805 0.0
197 4 0.0 46.78566 5.8482075 2.10541508
198 4 0.0 46.78566 3.898805 3.82108
199 1 0.0 52.6338675 5.8482075 0.0
200 2 0.0 52.6338675 5.8482075 3.82108
201 3 0.0 50.684465 3.898805 1.92582432
202 4 0.0 50.684465 3.898805 0.0
203 4 0.0 50.684465 5.8482075 2.10541508
204 4 0.0 50.684465 3.898805 3.82108
205 1 0.0 56.5326725 5.8482075 0.0
206 2 0.0 56.5326725 5.8482075 3.82108
207 3 0.0 54.58327 3.898805 1.92582432
208 4 0.0 54.58327 3.898805 0.0
209 4 0.0 54.58327 5.8482075 2.10541508
210 4 0.0 54.58327 3.898805 3.82108
211 1 0.0 60.4314775 5.8482075 0.0
212 2 0.0 60.4314775 5.8482075 3.82108
213 3 0.0 58.482075 3.898805 1.92582432
214 4 0.0 58.482075 3.898805 0.0
215 4 0.0 58.482075 5.8482075 2.10541508
216 4 0.0 58.482075 3.898805 3.82108
217 1 0.0 64.3302825 5.8482075 0.0
218 2 0.0 64.3302825 5.8482075 3.82108
219 3 0.0 62.38088 3.898805 1.92582432
220 4 0.0 62.38088 3.898805 0.0
221 4 0.0 62.38088 5.8482075 2.10541508
222 4 0.0 62.38088 3.898805 3.82108
223 1 0.0 68.2290875 5.8482075 0.0
224 2 0.0 68.2290875 5.8482075 3.82108
225 3 0.0 66.279685 3.898805 1.92582432
226 4 0.0 66.279685 3.898805 0.0
227 4 0.0 66.279685 5.8482075 2.10541508
228 4 0.0 66.279685 3.898805 3.82108
229 1 0.0 72.1278925 5.8482075 0.0
230 2 0.0 72.1278925 5.8482075 3.82108
231 3 0.0 70.17849 3.898805 1.92582432
232 4 0.0 70.17849 3.898805 0.0
233 4 0.0 70.17849 5.8482075 2.10541508
234 4 0.0 70.17849 3.898805 3.82108
235 1 0.0 76.0266975 5.8482075 0.0
236 2 0.0 76.0266975 5.8482075 3.82108
237 3 0.0 74.077295 3.898805 1.92582432
238 4 0.0 74.077295 3.898805 0.0
239 4 0.0 74.077295 5.8482075 2.10541508
240 4 0.0 74.077295 3.898805 3.82108
241 1 0.0 1.9494025 9.7470125 0.0
242 2 0.0 1.9494025 9.7470125 3.82108
243 3 0.0 0.0 7.79761 1.92582432
244 4 0.0 0.0 7.79761 0.0
245 4 0.0 0.0 9.7470125 2.10541508
246 4 0.0 0.0 7.79761 3.82108
247 1 0.0 5.8482075 9.7470125 0.0
248 2 0.0 5.8482075 9.7470125 3.82108
249 3 0.0 3.898805 7.79761 1.92582432
250 4 0.0 3.898805 7.79761 0.0
251 4 0.0 3.898805 9.7470125 2.10541508
252 4 0.0 3.898805 7.79761 3.82108
253 1 0.0 9.7470125 9.7470125 0.0
254 2 0.0 9.7470125 9.7470125 3.82108
255 3 0.0 7.79761 7.79761 1.92582432
256 4 0.0 7.79761 7.79761 0.0
257 4 0.0 7.79761 9.7470125 2.10541508
258 4 0.0 7.79761 7.79761 3.82108
259 1 0.0 13.6458175 9.7470125 0.0
260 2 0.0 13.6458175 9.7470125 3.82108
261 3 0.0 11.696415 7.79761 1.92582432
262 4 0.0 11.696415 7.79761 0.0
263 4 0.0 11.696415 9.7470125 2.10541508
264 4 0.0 11.696415 7.79761 3.82108
265 1 0.0 17.5446225 9.7470125 0.0
266 2 0.0 17.5446225 9.7470125 3.82108
267 3 0.0 15.59522 7.79761 1.92582432
268 4 0.0 15.59522 7.79761 0.0
269 4 0.0 15.59522 9.7470125 2.10541508
270 4 0.0 15.59522 7.79761 3.82108
271 1 0.0 21.4434275 9.7470125 0.0
272 2 0.0 21.4434275 9.7470125 3.82108
273 3 0.0 19.494025 7.79761 1.92582432
274 4 0.0 19.494025 7.79761 0.0
275 4 0.0 19.494025 9.7470125 2.10541508
276 4 0.0 19.494025 7.79761 3.82108
277 1 0.0 25.3422325 9.7470125 0.0
278 2 0.0 25.3422325 9.7470125 3.82108
279 3 0.0 23.39283 7.79761 1.92582432
280 4 0.0 23.39283 7.79761 0.0
281 4 0.0 23.39283 9.7470125 2.10541508
282 4 0.0 23.39283 7.79761 3.82108
283 1 0.0 29.2410375 9.7470125 0.0
284 2 0.0 29.2410375 9.7470125 3.82108
285 3 0.0 27.291635 7.79761 1.92582432
286 4 0.0 27.291635 7.79761 0.0
287 4 0.0 27.291635 9.7470125 2.10541508
288 4 0.0 27.291635 7.79761 3.82108
289 1 0.0 33.1398425 9.7470125 0.0
290 2 0.0 33.1398425 9.7470125 3.82108
291 3 0.0 31.19044 7.79761 1.92582432
292 4 0.0 31.19044 7.79761 0.0
293 4 0.0 31.19044 9.7470125 2.10541508
294 4 0.0 31.19044 7.79761 3.82108
295 1 0.0 37.0386475 9.7470125 0.0
296 2 0.0 37.0386475 9.7470125 3.82108
297 3 0.0 35.089245 7.79761 1.92582432
298 4 0.0 35.089245 7.79761 0.0
299 4 0.0 35.089245 9.7470125 2.10541508
300 4 0.0 35.089245 7.79761 3.82108
301 1 0.0 40.9374525 9.7470125 0.0
302 2 0.0 40.9374525 9.7470125 3.82108
303 3 0.0 38.98805 7.79761 1.92582432
304 4 0.0 38.98805 7.79761 0.0
305 4 0.0 38.98805 9.7470125 2.10541508
306 4 0.0 38.98805 7.79761 3.82108
307 1 0.0 44.8362575 9.7470125 0.0
308 2 0.0 44.8362575 9.7470125 3.82108
309 3 0.0 42.886855 7.79761 1.92582432
310 4 0.0 42.886855 7.79761 0.0
311 4 0.0 42.886855 9.7470125 2.10541508
312 4 0.0 42.886855 7.79761 3.82108
313 1 0.0 48.7350625 9.7470125 0.0
314 2 0.0 48.7350625 9.7470125 3.82108
315 3 0.0 46.78566 7.79761 1.92582432
316 4 0.0 46.78566 7.79761 0.0
317 4 0.0 46.78566 9.7470125 2.10541508
318 4 0.0 46.78566 7.79761 3.82108
319 1 0.0 52.6338675 9.7470125 0.0
320 2 0.0 52.6338675 9.7470125 3.82108
321 3 0.0 50.684465 7.79761 1.92582432
322 4 0.0 50.684465 7.79761 0.0
323 4 0.0 50.684465 9.7470125 2.10541508
324 4 0.0 50.684465 7.79761 3.82108
325 1 0.0 56.5326725 9.7470125 0.0
326 2 0.0 56.5326725 9.7470125 3.82108
327 3 0.0 54.58327 7.79761 1.92582432
328 4 0.0 54.58327 7.79761 0.0
329 4 0.0 54.58327 9.7470125 2.10541508
330 4 0.0 54.58327 7.79761 3.82108
331 1 0.0 60.4314775 9.7470125 0.0
332 2 0.0 60.4314775 9.7470125 3.82108
333 3 0.0 58.482075 7.79761 1.92582432
334 4 0.0 58.482075 7.79761 0.0
335 4 0.0 58.482075 9.7470125 2.10541508
336 4 0.0 58.482075 7.79761 3.82108
337 1 0.0 64.3302825 9.7470125 0.0
338 2 0.0 64.3302825 9.7470125 3.82108
339 3 0.0 62.38088 7.79761 1.92582432
340 4 0.0 62.38088 7.79761 0.0
341 4 0.0 62.38088 9.7470125 2.10541508
342 4 0.0 62.38088 7.79761 3.82108
343 1 0.0 68.2290875 9.7470125 0.0
344 2 0.0 68.2290875 9.7470125 3.82108
345 3 0.0 66.279685 7.79761 1.92582432
346 4 0.0 66.279685 7.79761 0.0
347 4 0.0 66.279685 9.7470125 2.10541508
348 4 0.0 66.279685 7.79761 3.82108
349 1 0.0 72.1278925 9.7470125 0.0
350 2 0.0 72.1278925 9.7470125 3.82108
351 3 0.0 70.17849 7.79761 1.92582432
352 4 0.0 70.17849 7.79761 0.0
353 4 0.0 70.17849 9.7470125 2.10541508
354 4 0.0 70.17849 7.79761 3.82108
355 1 0.0 76.0266975 9.7470125 0.0
356 2 0.0 76.0266975 9.7470125 3.82108
357 3 0.0 74.077295 7.79761 1.92582432
358 4 0.0 74.077295 7.79761 0.0
359 4 0.0 74.077295 9.7470125 2.10541508
360 4 0.0 74.077295 7.79761 3.82108
361 1 0.0 1.9494025 13.6458175 0.0
362 2 0.0 1.9494025 13.6458175 3.82108
363 3 0.0 0.0 11.696415 1.92582432
364 4 0.0 0.0 11.696415 0.0
365 4 0.0 0.0 13.6458175 2.10541508
366 4 0.0 0.0 11.696415 3.82108
367 1 0.0 5.8482075 13.6458175 0.0
368 2 0.0 5.8482075 13.6458175 3.82108
369 3 0.0 3.898805 11.696415 1.92582432
370 4 0.0 3.898805 11.696415 0.0
371 4 0.0 3.898805 13.6458175 2.10541508
372 4 0.0 3.898805 11.696415 3.82108
373 1 0.0 9.7470125 13.6458175 0.0
374 2 0.0 9.7470125 13.6458175 3.82108
375 3 0.0 7.79761 11.696415 1.92582432
376 4 0.0 7.79761 11.696415 0.0
377 4 0.0 7.79761 13.6458175 2.10541508
378 4 0.0 7.79761 11.696415 3.82108
379 1 0.0 13.6458175 13.6458175 0.0
380 2 0.0 13.6458175 13.6458175 3.82108
381 3 0.0 11.696415 11.696415 1.92582432
382 4 0.0 11.696415 11.696415 0.0
383 4 0.0 11.696415 13.6458175 2.10541508
384 4 0.0 11.696415 11.696415 3.82108
385 1 0.0 17.5446225 13.6458175 0.0
386 2 0.0 17.5446225 13.6458175 3.82108
387 3 0.0 15.59522 11.696415 1.92582432
388 4 0.0 15.59522 11.696415 0.0
389 4 0.0 15.59522 13.6458175 2.10541508
390 4 0.0 15.59522 11.696415 3.82108
391 1 0.0 21.4434275 13.6458175 0.0
392 2 0.0 21.4434275 13.6458175 3.82108
393 3 0.0 19.494025 11.696415 1.92582432
394 4 0.0 19.494025 11.696415 0.0
395 4 0.0 19.494025 13.6458175 2.10541508
396 4 0.0 19.494025 11.696415 3.82108
397 1 0.0 25.3422325 13.6458175 0.0
398 2 0.0 25.3422325 13.6458175 3.82108
399 3 0.0 23.39283 11.696415 1.92582432
400 4 0.0 23.39283 11.696415 0.0
401 4 0.0 23.39283 13.6458175 2.10541508
402 4 0.0 23.39283 11.696415 3.82108
403 1 0.0 29.2410375 13.6458175 0.0
404 2 0.0 29.2410375 13.6458175 3.82108
405 3 0.0 27.291635 11.696415 1.92582432
406 4 0.0 27.291635 11.696415 0.0
407 4 0.0 27.291635 13.6458175 2.10541508
408 4 0.0 27.291635 11.696415 3.82108
409 1 0.0 33.1398425 13.6458175 0.0
410 2 0.0 33.1398425 13.6458175 3.82108
411 3 0.0 31.19044 11.696415 1.92582432
412 4 0.0 31.19044 11.696415 0.0
413 4 0.0 31.19044 13.6458175 2.10541508
414 4 0.0 31.19044 11.696415 3.82108
415 1 0.0 37.0386475 13.6458175 0.0
416 2 0.0 37.0386475 13.6458175 3.82108
417 3 0.0 35.089245 11.696415 1.92582432
418 4 0.0 35.089245 11.696415 0.0
419 4 0.0 35.089245 13.6458175 2.10541508
420 4 0.0 35.089245 11.696415 3.82108
421 1 0.0 40.9374525 13.6458175 0.0
422 2 0.0 40.9374525 13.6458175 3.82108
423 3 0.0 38.98805 11.696415 1.92582432
424 4 0.0 38.98805 11.696415 0.0
425 4 0.0 38.98805 13.6458175 2.10541508
426 4 0.0 38.98805 11.696415 3.82108
427 1 0.0 44.8362575 13.6458175 0.0
428 2 0.0 44.8362575 13.6458175 3.82108
429 3 0.0 42.886855 11.696415 1.92582432
430 4 0.0 42.886855 11.696415 0.0
431 4 0.0 42.886855 13.6458175 2.10541508
432 4 0.0 42.886855 11.696415 3.82108
433 1 0.0 48.7350625 13.6458175 0.0
434 2 0.0 48.7350625 13.6458175 3.82108
435 3 0.0 46.78566 11.696415 1.92582432
436 4 0.0 46.78566 11.696415 0.0
437 4 0.0 46.78566 13.6458175 2.10541508
438 4 0.0 46.78566 11.696415 3.82108
439 1 0.0 52.6338675 13.6458175 0.0
440 2 0.0 52.6338675 13.6458175 3.82108
441 3 0.0 50.684465 11.696415 1.92582432
442 4 0.0 50.684465 11.696415 0.0
443 4 0.0 50.684465 13.6458175 2.10541508
444 4 0.0 50.684465 11.696415 3.82108
445 1 0.0 56.5326725 13.6458175 0.0
446 2 0.0 56.5326725 13.6458175 3.82108
447 3 0.0 54.58327 11.696415 1.92582432
448 4 0.0 54.58327 11.696415 0.0
449 4 0.0 54.58327 13.6458175 2.10541508
450 4 0.0 54.58327 11.696415 3.82108
451 1 0.0 60.4314775 13.6458175 0.0
452 2 0.0 60.4314775 13.6458175 3.82108
453 3 0.0 58.482075 11.696415 1.92582432
454 4 0.0 58.482075 11.696415 0.0
455 4 0.0 58.482075 13.6458175 2.10541508
456 4 0.0 58.482075 11.696415 3.82108
457 1 0.0 64.3302825 13.6458175 0.0
458 2 0.0 64.3302825 13.6458175 3.82108
459 3 0.0 62.38088 11.696415 1.92582432
460 4 0.0 62.38088 11.696415 0.0
461 4 0.0 62.38088 13.6458175 2.10541508
462 4 0.0 62.38088 11.696415 3.82108
463 1 0.0 68.2290875 13.6458175 0.0
464 2 0.0 68.2290875 13.6458175 3.82108
465 3 0.0 66.279685 11.696415 1.92582432
466 4 0.0 66.279685 11.696415 0.0
467 4 0.0 66.279685 13.6458175 2.10541508
468 4 0.0 66.279685 11.696415 3.82108
469 1 0.0 72.1278925 13.6458175 0.0
470 2 0.0 72.1278925 13.6458175 3.82108
471 3 0.0 70.17849 11.696415 1.92582432
472 4 0.0 70.17849 11.696415 0.0
473 4 0.0 70.17849 13.6458175 2.10541508
474 4 0.0 70.17849 11.696415 3.82108
475 1 0.0 76.0266975 13.6458175 0.0
476 2 0.0 76.0266975 13.6458175 3.82108
477 3 0.0 74.077295 11.696415 1.92582432
478 4 0.0 74.077295 11.696415 0.0
479 4 0.0 74.077295 13.6458175 2.10541508
480 4 0.0 74.077295 11.696415 3.82108
481 1 0.0 1.9494025 17.5446225 0.0
482 2 0.0 1.9494025 17.5446225 3.82108
483 3 0.0 0.0 15.59522 1.92582432
484 4 0.0 0.0 15.59522 0.0
485 4 0.0 0.0 17.5446225 2.10541508
486 4 0.0 0.0 15.59522 3.82108
487 1 0.0 5.8482075 17.5446225 0.0
488 2 0.0 5.8482075 17.5446225 3.82108
489 3 0.0 3.898805 15.59522 1.92582432
490 4 0.0 3.898805 15.59522 0.0
491 4 0.0 3.898805 17.5446225 2.10541508
492 4 0.0 3.898805 15.59522 3.82108
493 1 0.0 9.7470125 17.5446225 0.0
494 2 0.0 9.7470125 17.5446225 3.82108
495 3 0.0 7.79761 15.59522 1.92582432
496 4 0.0 7.79761 15.59522 0.0
497 4 0.0 7.79761 17.5446225 2.10541508
498 4 0.0 7.79761 15.59522 3.82108
499 1 0.0 13.6458175 17.5446225 0.0
500 2 0.0 13.6458175 17.5446225 3.82108
501 3 0.0 11.696415 15.59522 1.92582432
502 4 0.0 11.696415 15.59522 0.0
503 4 0.0 11.696415 17.5446225 2.10541508
504 4 0.0 11.696415 15.59522 3.82108
505 1 0.0 17.5446225 17.5446225 0.0
506 2 0.0 17.5446225 17.5446225 3.82108
507 3 0.0 15.59522 15.59522 1.92582432
508 4 0.0 15.59522 15.59522 0.0
509 4 0.0 15.59522 17.5446225 2.10541508
510 4 0.0 15.59522 15.59522 3.82108
511 1 0.0 21.4434275 17.5446225 0.0
512 2 0.0 21.4434275 17.5446225 3.82108
513 3 0.0 19.494025 15.59522 1.92582432
514 4 0.0 19.494025 15.59522 0.0
515 4 0.0 19.494025 17.5446225 2.10541508
516 4 0.0 19.494025 15.59522 3.82108
517 1 0.0 25.3422325 17.5446225 0.0
518 2 0.0 25.3422325 17.5446225 3.82108
519 3 0.0 23.39283 15.59522 1.92582432
520 4 0.0 23.39283 15.59522 0.0
521 4 0.0 23.39283 17.5446225 2.10541508
522 4 0.0 23.39283 15.59522 3.82108
523 1 0.0 29.2410375 17.5446225 0.0
524 2 0.0 29.2410375 17.5446225 3.82108
525 3 0.0 27.291635 15.59522 1.92582432
526 4 0.0 27.291635 15.59522 0.0
527 4 0.0 27.291635 17.5446225 2.10541508
528 4 0.0 27.291635 15.59522 3.82108
529 1 0.0 33.1398425 17.5446225 0.0
530 2 0.0 33.1398425 17.5446225 3.82108
531 3 0.0 31.19044 15.59522 1.92582432
532 4 0.0 31.19044 15.59522 0.0
533 4 0.0 31.19044 17.5446225 2.10541508
534 4 0.0 31.19044 15.59522 3.82108
535 1 0.0 37.0386475 17.5446225 0.0
536 2 0.0 37.0386475 17.5446225 3.82108
537 3 0.0 35.089245 15.59522 1.92582432
538 4 0.0 35.089245 15.59522 0.0
539 4 0.0 35.089245 17.5446225 2.10541508
540 4 0.0 35.089245 15.59522 3.82108
541 1 0.0 40.9374525 17.5446225 0.0
542 2 0.0 40.9374525 17.5446225 3.82108
543 3 0.0 38.98805 15.59522 1.92582432
544 4 0.0 38.98805 15.59522 0.0
545 4 0.0 38.98805 17.5446225 2.10541508
546 4 0.0 38.98805 15.59522 3.82108
547 1 0.0 44.8362575 17.5446225 0.0
548 2 0.0 44.8362575 17.5446225 3.82108
549 3 0.0 42.886855 15.59522 1.92582432
550 4 0.0 42.886855 15.59522 0.0
551 4 0.0 42.886855 17.5446225 2.10541508
552 4 0.0 42.886855 15.59522 3.82108
553 1 0.0 48.7350625 17.5446225 0.0
554 2 0.0 48.7350625 17.5446225 3.82108
555 3 0.0 46.78566 15.59522 1.92582432
556 4 0.0 46.78566 15.59522 0.0
557 4 0.0 46.78566 17.5446225 2.10541508
558 4 0.0 46.78566 15.59522 3.82108
559 1 0.0 52.6338675 17.5446225 0.0
560 2 0.0 52.6338675 17.5446225 3.82108
561 3 0.0 50.684465 15.59522 1.92582432
562 4 0.0 50.684465 15.59522 0.0
563 4 0.0 50.684465 17.5446225 2.10541508
564 4 0.0 50.684465 15.59522 3.82108
565 1 0.0 56.5326725 17.5446225 0.0
566 2 0.0 56.5326725 17.5446225 3.82108
567 3 0.0 54.58327 15.59522 1.92582432
568 4 0.0 54.58327 15.59522 0.0
569 4 0.0 54.58327 17.5446225 2.10541508
570 4 0.0 54.58327 15.59522 3.82108
571 1 0.0 60.4314775 17.5446225 0.0
572 2 0.0 60.4314775 17.5446225 3.82108
573 3 0.0 58.482075 15.59522 1.92582432
574 4 0.0 58.482075 15.59522 0.0
575 4 0.0 58.482075 17.5446225 2.10541508
576 4 0.0 58.482075 15.59522 3.82108
577 1 0.0 64.3302825 17.5446225 0.0
578 2 0.0 64.3302825 17.5446225 3.82108
579 3 0.0 62.38088 15.59522 1.92582432
580 4 0.0 62.38088 15.59522 0.0
581 4 0.0 62.38088 17.5446225 2.10541508
582 4 0.0 62.38088 15.59522 3.82108
583 1 0.0 68.2290875 17.5446225 0.0
584 2 0.0 68.2290875 17.5446225 3.82108
585 3 0.0 66.279685 15.59522 1.92582432
586 4 0.0 66.279685 15.59522 0.0
587 4 0.0 66.279685 17.5446225 2.10541508
588 4 0.0 66.279685 15.59522 3.82108
589 1 0.0 72.1278925 17.5446225 0.0
590 2 0.0 72.1278925 17.5446225 3.82108
591 3 0.0 70.17849 15.59522 1.92582432
592 4 0.0 70.17849 15.59522 0.0
593 4 0.0 70.17849 17.5446225 2.10541508
594 4 0.0 70.17849 15.59522 3.82108
595 1 0.0 76.0266975 17.5446225 0.0
596 2 0.0 76.0266975 17.5446225 3.82108
597 3 0.0 74.077295 15.59522 1.92582432
598 4 0.0 74.077295 15.59522 0.0
599 4 0.0 74.077295 17.5446225 2.10541508
600 4 0.0 74.077295 15.59522 3.82108
601 1 0.0 1.9494025 21.4434275 0.0
602 2 0.0 1.9494025 21.4434275 3.82108
603 3 0.0 0.0 19.494025 1.92582432
604 4 0.0 0.0 19.494025 0.0
605 4 0.0 0.0 21.4434275 2.10541508
606 4 0.0 0.0 19.494025 3.82108
607 1 0.0 5.8482075 21.4434275 0.0
608 2 0.0 5.8482075 21.4434275 3.82108
609 3 0.0 3.898805 19.494025 1.92582432
610 4 0.0 3.898805 19.494025 0.0
611 4 0.0 3.898805 21.4434275 2.10541508
612 4 0.0 3.898805 19.494025 3.82108
613 1 0.0 9.7470125 21.4434275 0.0
614 2 0.0 9.7470125 21.4434275 3.82108
615 3 0.0 7.79761 19.494025 1.92582432
616 4 0.0 7.79761 19.494025 0.0
617 4 0.0 7.79761 21.4434275 2.10541508
618 4 0.0 7.79761 19.494025 3.82108
619 1 0.0 13.6458175 21.4434275 0.0
620 2 0.0 13.6458175 21.4434275 3.82108
621 3 0.0 11.696415 19.494025 1.92582432
622 4 0.0 11.696415 19.494025 0.0
623 4 0.0 11.696415 21.4434275 2.10541508
624 4 0.0 11.696415 19.494025 3.82108
625 1 0.0 17.5446225 21.4434275 0.0
626 2 0.0 17.5446225 21.4434275 3.82108
627 3 0.0 15.59522 19.494025 1.92582432
628 4 0.0 15.59522 19.494025 0.0
629 4 0.0 15.59522 21.4434275 2.10541508
630 4 0.0 15.59522 19.494025 3.82108
631 1 0.0 21.4434275 21.4434275 0.0
632 2 0.0 21.4434275 21.4434275 3.82108
633 3 0.0 19.494025 19.494025 1.92582432
634 4 0.0 19.494025 19.494025 0.0
635 4 0.0 19.494025 21.4434275 2.10541508
636 4 0.0 19.494025 19.494025 3.82108
637 1 0.0 25.3422325 21.4434275 0.0
638 2 0.0 25.3422325 21.4434275 3.82108
639 3 0.0 23.39283 19.494025 1.92582432
640 4 0.0 23.39283 19.494025 0.0
641 4 0.0 23.39283 21.4434275 2.10541508
642 4 0.0 23.39283 19.494025 3.82108
643 1 0.0 29.2410375 21.4434275 0.0
644 2 0.0 29.2410375 21.4434275 3.82108
645 3 0.0 27.291635 19.494025 1.92582432
646 4 0.0 27.291635 19.494025 0.0
647 4 0.0 27.291635 21.4434275 2.10541508
648 4 0.0 27.291635 19.494025 3.82108
649 1 0.0 33.1398425 21.4434275 0.0
650 2 0.0 33.1398425 21.4434275 3.82108
651 3 0.0 31.19044 19.494025 1.92582432
652 4 0.0 31.19044 19.494025 0.0
653 4 0.0 31.19044 21.4434275 2.10541508
654 4 0.0 31.19044 19.494025 3.82108
655 1 0.0 37.0386475 21.4434275 0.0
656 2 0.0 37.0386475 21.4434275 3.82108
657 3 0.0 35.089245 19.494025 1.92582432
658 4 0.0 35.089245 19.494025 0.0
659 4 0.0 35.089245 21.4434275 2.10541508
660 4 0.0 35.089245 19.494025 3.82108
661 1 0.0 40.9374525 21.4434275 0.0
662 2 0.0 40.9374525 21.4434275 3.82108
663 3 0.0 38.98805 19.494025 1.92582432
664 4 0.0 38.98805 19.494025 0.0
665 4 0.0 38.98805 21.4434275 2.10541508
666 4 0.0 38.98805 19.494025 3.82108
667 1 0.0 44.8362575 21.4434275 0.0
668 2 0.0 44.8362575 21.4434275 3.82108
669 3 0.0 42.886855 19.494025 1.92582432
670 4 0.0 42.886855 19.494025 0.0
671 4 0.0 42.886855 21.4434275 2.10541508
672 4 0.0 42.886855 19.494025 3.82108
673 1 0.0 48.7350625 21.4434275 0.0
674 2 0.0 48.7350625 21.4434275 3.82108
675 3 0.0 46.78566 19.494025 1.92582432
676 4 0.0 46.78566 19.494025 0.0
677 4 0.0 46.78566 21.4434275 2.10541508
678 4 0.0 46.78566 19.494025 3.82108
679 1 0.0 52.6338675 21.4434275 0.0
680 2 0.0 52.6338675 21.4434275 3.82108
681 3 0.0 50.684465 19.494025 1.92582432
682 4 0.0 50.684465 19.494025 0.0
683 4 0.0 50.684465 21.4434275 2.10541508
684 4 0.0 50.684465 19.494025 3.82108
685 1 0.0 56.5326725 21.4434275 0.0
686 2 0.0 56.5326725 21.4434275 3.82108
687 3 0.0 54.58327 19.494025 1.92582432
688 4 0.0 54.58327 19.494025 0.0
689 4 0.0 54.58327 21.4434275 2.10541508
690 4 0.0 54.58327 19.494025 3.82108
691 1 0.0 60.4314775 21.4434275 0.0
692 2 0.0 60.4314775 21.4434275 3.82108
693 3 0.0 58.482075 19.494025 1.92582432
694 4 0.0 58.482075 19.494025 0.0
695 4 0.0 58.482075 21.4434275 2.10541508
696 4 0.0 58.482075 19.494025 3.82108
697 1 0.0 64.3302825 21.4434275 0.0
698 2 0.0 64.3302825 21.4434275 3.82108
699 3 0.0 62.38088 19.494025 1.92582432
700 4 0.0 62.38088 19.494025 0.0
701 4 0.0 62.38088 21.4434275 2.10541508
702 4 0.0 62.38088 19.494025 3.82108
703 1 0.0 68.2290875 21.4434275 0.0
704 2 0.0 68.2290875 21.4434275 3.82108
705 3 0.0 66.279685 19.494025 1.92582432
706 4 0.0 66.279685 19.494025 0.0
707 4 0.0 66.279685 21.4434275 2.10541508
708 4 0.0 66.279685 19.494025 3.82108
709 1 0.0 72.1278925 21.4434275 0.0
710 2 0.0 72.1278925 21.4434275 3.82108
711 3 0.0 70.17849 19.494025 1.92582432
712 4 0.0 70.17849 19.494025 0.0
713 4 0.0 70.17849 21.4434275 2.10541508
714 4 0.0 70.17849 19.494025 3.82108
715 1 0.0 76.0266975 21.4434275 0.0
716 2 0.0 76.0266975 21.4434275 3.82108
717 3 0.0 74.077295 19.494025 1.92582432
718 4 0.0 74.077295 19.494025 0.0
719 4 0.0 74.077295 21.4434275 2.10541508
720 4 0.0 74.077295 19.494025 3.82108
721 1 0.0 1.9494025 25.3422325 0.0
722 2 0.0 1.9494025 25.3422325 3.82108
723 3 0.0 0.0 23.39283 1.92582432
724 4 0.0 0.0 23.39283 0.0
725 4 0.0 0.0 25.3422325 2.10541508
726 4 0.0 0.0 23.39283 3.82108
727 1 0.0 5.8482075 25.3422325 0.0
728 2 0.0 5.8482075 25.3422325 3.82108
729 3 0.0 3.898805 23.39283 1.92582432
730 4 0.0 3.898805 23.39283 0.0
731 4 0.0 3.898805 25.3422325 2.10541508
732 4 0.0 3.898805 23.39283 3.82108
733 1 0.0 9.7470125 25.3422325 0.0
734 2 0.0 9.7470125 25.3422325 3.82108
735 3 0.0 7.79761 23.39283 1.92582432
736 4 0.0 7.79761 23.39283 0.0
737 4 0.0 7.79761 25.3422325 2.10541508
738 4 0.0 7.79761 23.39283 3.82108
739 1 0.0 13.6458175 25.3422325 0.0
740 2 0.0 13.6458175 25.3422325 3.82108
741 3 0.0 11.696415 23.39283 1.92582432
742 4 0.0 11.696415 23.39283 0.0
743 4 0.0 11.696415 25.3422325 2.10541508
744 4 0.0 11.696415 23.39283 3.82108
745 1 0.0 17.5446225 25.3422325 0.0
746 2 0.0 17.5446225 25.3422325 3.82108
747 3 0.0 15.59522 23.39283 1.92582432
748 4 0.0 15.59522 23.39283 0.0
749 4 0.0 15.59522 25.3422325 2.10541508
750 4 0.0 15.59522 23.39283 3.82108
751 1 0.0 21.4434275 25.3422325 0.0
752 2 0.0 21.4434275 25.3422325 3.82108
753 3 0.0 19.494025 23.39283 1.92582432
754 4 0.0 19.494025 23.39283 0.0
755 4 0.0 19.494025 25.3422325 2.10541508
756 4 0.0 19.494025 23.39283 3.82108
757 1 0.0 25.3422325 25.3422325 0.0
758 2 0.0 25.3422325 25.3422325 3.82108
759 3 0.0 23.39283 23.39283 1.92582432
760 4 0.0 23.39283 23.39283 0.0
761 4 0.0 23.39283 25.3422325 2.10541508
762 4 0.0 23.39283 23.39283 3.82108
763 1 0.0 29.2410375 25.3422325 0.0
764 2 0.0 29.2410375 25.3422325 3.82108
765 3 0.0 27.291635 23.39283 1.92582432
766 4 0.0 27.291635 23.39283 0.0
767 4 0.0 27.291635 25.3422325 2.10541508
768 4 0.0 27.291635 23.39283 3.82108
769 1 0.0 33.1398425 25.3422325 0.0
770 2 0.0 33.1398425 25.3422325 3.82108
771 3 0.0 31.19044 23.39283 1.92582432
772 4 0.0 31.19044 23.39283 0.0
773 4 0.0 31.19044 25.3422325 2.10541508
774 4 0.0 31.19044 23.39283 3.82108
775 1 0.0 37.0386475 25.3422325 0.0
776 2 0.0 37.0386475 25.3422325 3.82108
777 3 0.0 35.089245 23.39283 1.92582432
778 4 0.0 35.089245 23.39283 0.0
779 4 0.0 35.089245 25.3422325 2.10541508
780 4 0.0 35.089245 23.39283 3.82108
781 1 0.0 40.9374525 25.3422325 0.0
782 2 0.0 40.9374525 25.3422325 3.82108
783 3 0.0 38.98805 23.39283 1.92582432
784 4 0.0 38.98805 23.39283 0.0
785 4 0.0 38.98805 25.3422325 2.10541508
786 4 0.0 38.98805 23.39283 3.82108
787 1 0.0 44.8362575 25.3422325 0.0
788 2 0.0 44.8362575 25.3422325 3.82108
789 3 0.0 42.886855 23.39283 1.92582432
790 4 0.0 42.886855 23.39283 0.0
791 4 0.0 42.886855 25.3422325 2.10541508
792 4 0.0 42.886855 23.39283 3.82108
793 1 0.0 48.7350625 25.3422325 0.0
794 2 0.0 48.7350625 25.3422325 3.82108
795 3 0.0 46.78566 23.39283 1.92582432
796 4 0.0 46.78566 23.39283 0.0
797 4 0.0 46.78566 25.3422325 2.10541508
798 4 0.0 46.78566 23.39283 3.82108
799 1 0.0 52.6338675 25.3422325 0.0
800 2 0.0 52.6338675 25.3422325 3.82108
801 3 0.0 50.684465 23.39283 1.92582432
802 4 0.0 50.684465 23.39283 0.0
803 4 0.0 50.684465 25.3422325 2.10541508
804 4 0.0 50.684465 23.39283 3.82108
805 1 0.0 56.5326725 25.3422325 0.0
806 2 0.0 56.5326725 25.3422325 3.82108
807 3 0.0 54.58327 23.39283 1.92582432
808 4 0.0 54.58327 23.39283 0.0
809 4 0.0 54.58327 25.3422325 2.10541508
810 4 0.0 54.58327 23.39283 3.82108